Title: 
Date: Wed Nov  5 20:38:08  2025
Plotname: DC transfer characteristic
Flags: real
No. Variables: 20
No. Points: 5860
Variables:
	0	v(v-sweep)	voltage
	1	v(1)	voltage
	2	v(2)	voltage
	3	v(3)	voltage
	4	v(4)	voltage
	5	v(5)	voltage
	6	v(6)	voltage
	7	v(7)	voltage
	8	v(8)	voltage
	9	v(9)	voltage
	10	v(10)	voltage
	11	v(11)	voltage
	12	v(12)	voltage
	13	v(13)	voltage
	14	v(14)	voltage
	15	v(15)	voltage
	16	v(16)	voltage
	17	v(17)	voltage
	18	v(18)	voltage
	19	i(v1)	current
Values:
 0	0.000000000000000e+00
	0.000000000000000e+00
	6.737854042378615e-02
	-2.990954546420982e-03
	6.438758587736516e-02
	-5.981909092841816e-03
	6.139663133094434e-02
	-8.972863639262307e-03
	5.840567678452385e-02
	-1.196381818568411e-02
	5.541472223810202e-02
	-1.495477273210562e-02
	5.242376769168054e-02
	-1.794572727852761e-02
	4.943281314525853e-02
	-2.093668182494933e-02
	4.644185859883682e-02
	-2.392763637137098e-02
	7.036949497020736e-02
	7.503820446528491e+00

 1	1.000000000000000e-03
	1.000000000000000e-03
	6.837735628294991e-02
	-2.102013093148100e-03
	6.527534318980180e-02
	-5.204026186296686e-03
	6.217333009665321e-02
	-8.306039279446051e-03
	5.907131700350384e-02
	-1.140805237259570e-02
	5.596930391035419e-02
	-1.451006546574581e-02
	5.286729081720408e-02
	-1.761207855889558e-02
	4.976527772405431e-02
	-2.071409165204467e-02
	4.666326463090523e-02
	-2.381610474519336e-02
	7.047936937610000e-02
	7.503688571006068e+00

 2	2.000000000000000e-03
	2.000000000000000e-03
	6.937617213002149e-02
	-1.213071639342089e-03
	6.616310049067940e-02
	-4.426143278683515e-03
	6.295002885133798e-02
	-7.639214918025161e-03
	5.973695721199634e-02
	-1.085228655736609e-02
	5.652388557265541e-02
	-1.406535819670618e-02
	5.331081393331534e-02
	-1.727842983604610e-02
	5.009774229397541e-02
	-2.049150147538549e-02
	4.688467065463603e-02
	-2.370457311472483e-02
	7.058924376936046e-02
	7.503556694136961e+00

 3	3.000000000000000e-03
	3.000000000000000e-03
	7.037498797405069e-02
	-3.241301853943862e-04
	6.705085778865630e-02
	-3.648260370788701e-03
	6.372672760326198e-02
	-6.972390556183858e-03
	6.040259741786682e-02
	-1.029652074157979e-02
	5.707846723247087e-02
	-1.362065092697611e-02
	5.375433704707454e-02
	-1.694478111237306e-02
	5.043020686167760e-02
	-2.026891129777074e-02
	4.710607667627990e-02
	-2.359304148316910e-02
	7.069911815945010e-02
	7.503424816929028e+00

 4	4.000000000000000e-03
	4.000000000000000e-03
	7.137380381200345e-02
	5.648112688166895e-04
	6.793861508082015e-02
	-2.870377462366412e-03
	6.450342634963704e-02
	-6.305566193549342e-03
	6.106823761845412e-02
	-9.740754924731573e-03
	5.763304888727189e-02
	-1.317594365591398e-02
	5.419786015608949e-02
	-1.661113238709711e-02
	5.076267142490636e-02
	-2.004632111827949e-02
	4.732748269372398e-02
	-2.348150984946284e-02
	7.080899254318640e-02
	7.503292939044377e+00

 5	5.000000000000000e-03
	5.000000000000000e-03
	7.237261964386689e-02
	1.453752723300561e-03
	6.882637236716747e-02
	-2.092494553398350e-03
	6.528012509046856e-02
	-5.638741830096994e-03
	6.173387781376992e-02
	-9.184989106795993e-03
	5.818763053707092e-02
	-1.273123638349486e-02
	5.464138326037205e-02
	-1.627748366019341e-02
	5.109513598367350e-02
	-1.982373093689244e-02
	4.754888870697447e-02
	-2.336997821359121e-02
	7.091886692056594e-02
	7.503161060481567e+00

 6	6.000000000000000e-03
	6.000000000000000e-03
	7.337143546962796e-02
	2.342694178056187e-03
	6.971412964768413e-02
	-1.314611643887423e-03
	6.605682382574052e-02
	-4.971917465831067e-03
	6.239951800379687e-02
	-8.629223287775559e-03
	5.874221218185237e-02
	-1.228652910971968e-02
	5.508490635990826e-02
	-1.594383493166315e-02
	5.142760053796479e-02
	-1.960114075360709e-02
	4.777029471602085e-02
	-2.325844657555133e-02
	7.102874129157330e-02
	7.503029181239150e+00

 7	7.000000000000000e-03
	7.000000000000000e-03
	7.437025128927346e-02
	3.231635633081237e-03
	7.060188692235470e-02
	-5.367287338373936e-04
	6.683352255543606e-02
	-4.305093100756198e-03
	6.306515818851727e-02
	-8.073457467673392e-03
	5.929679382160009e-02
	-1.184182183459066e-02
	5.552842945468282e-02
	-1.561018620150775e-02
	5.176006508776573e-02
	-1.937855056842518e-02
	4.799170072084829e-02
	-2.314691493534245e-02
	7.113861565619095e-02
	7.502897301315652e+00

 8	8.000000000000000e-03
	8.000000000000000e-03
	7.536906710279039e-02
	4.120577088379859e-03
	7.148964419117025e-02
	2.411541767596820e-04
	6.761022127955008e-02
	-3.638268734860180e-03
	6.373079836793021e-02
	-7.517691646479870e-03
	5.985137545631052e-02
	-1.139711455810000e-02
	5.597195254469040e-02
	-1.527653746971937e-02
	5.209252963307102e-02
	-1.915596038133826e-02
	4.821310672145214e-02
	-2.303538329295652e-02
	7.124849001440858e-02
	7.502765420709625e+00

 9	9.000000000000001e-03
	9.000000000000001e-03
	7.636788291016559e-02
	5.009518543952138e-03
	7.237740145411774e-02
	1.019037087904171e-03
	6.838691999806976e-02
	-2.971444368143693e-03
	6.439643854202190e-02
	-6.961925824192076e-03
	6.040595708597351e-02
	-1.095240728024049e-02
	5.641547562992509e-02
	-1.494288873628925e-02
	5.242499417387633e-02
	-1.893337019233782e-02
	4.843451271782776e-02
	-2.292385164838637e-02
	7.135836436621498e-02
	7.502633539419609e+00

 10	1.000000000000000e-02
	1.000000000000000e-02
	7.736669871138584e-02
	5.898459999794659e-03
	7.326515871118050e-02
	1.796919999589703e-03
	6.916361871097555e-02
	-2.304620000615820e-03
	6.506207871077002e-02
	-6.406160000820629e-03
	6.096053871056522e-02
	-1.050770000102554e-02
	5.685899871036031e-02
	-1.460924000122899e-02
	5.275745871015687e-02
	-1.871078000143218e-02
	4.865591870995369e-02
	-2.281232000163498e-02
	7.146823871158876e-02
	7.502501657444125e+00

 11	1.100000000000000e-02
	1.100000000000000e-02
	7.836551450643800e-02
	6.787401455911765e-03
	7.415291596234977e-02
	2.574802911824353e-03
	6.994031741826237e-02
	-1.637795632261983e-03
	6.572771887417604e-02
	-5.850394176346946e-03
	6.151512033009109e-02
	-1.006299272043167e-02
	5.730252178600637e-02
	-1.427559126451725e-02
	5.308992324192078e-02
	-1.848818980860327e-02
	4.887732469783476e-02
	-2.270078835268932e-02
	7.157811305052444e-02
	7.502369774781713e+00

 12	1.200000000000000e-02
	1.200000000000000e-02
	7.936433029530887e-02
	7.676342912305359e-03
	7.504067320761423e-02
	3.352685824611814e-03
	7.071701611992071e-02
	-9.709712630817935e-04
	6.639335903222710e-02
	-5.294628350774745e-03
	6.206970194453414e-02
	-9.618285438467648e-03
	5.774604485684125e-02
	-1.394194252616111e-02
	5.342238776914776e-02
	-1.826559961385518e-02
	4.909873068145371e-02
	-2.258925670154951e-02
	7.168798738300346e-02
	7.502237891430904e+00

 13	1.300000000000000e-02
	1.300000000000000e-02
	8.036314607798514e-02
	8.565284368972081e-03
	7.592843044695723e-02
	4.130568737945146e-03
	7.149371481593030e-02
	-3.041468930825020e-04
	6.705899918490264e-02
	-4.738862524108975e-03
	6.262428355387618e-02
	-9.173578155134657e-03
	5.818956792285050e-02
	-1.360829378616016e-02
	5.375485229182501e-02
	-1.804300941718581e-02
	4.932013666079935e-02
	-2.247772504821171e-02
	7.179786170901109e-02
	7.502106007390213e+00

 14	1.400000000000001e-02
	1.400000000000001e-02
	8.136196185445360e-02
	9.454225825917012e-03
	7.681618768037060e-02
	4.908451651833299e-03
	7.227041350628688e-02
	3.626774777500952e-04
	6.772463933220368e-02
	-4.183096696333391e-03
	6.317886515812020e-02
	-8.728870870416079e-03
	5.863309098403752e-02
	-1.327464504449960e-02
	5.408731680995398e-02
	-1.782041921858310e-02
	4.954154263587049e-02
	-2.236619339266656e-02
	7.190773602853809e-02
	7.501974122658171e+00

 15	1.500000000000001e-02
	1.500000000000001e-02
	8.236077762470088e-02
	1.034316728313803e-02
	7.770394490783890e-02
	5.686334566275003e-03
	7.304711219097587e-02
	1.029501849411314e-03
	6.839027947411218e-02
	-3.627330867452858e-03
	6.373344675724800e-02
	-8.284163584318736e-03
	5.907661404038211e-02
	-1.294099630118393e-02
	5.441978132351692e-02
	-1.759782901804870e-02
	4.976294860665215e-02
	-2.225466173491362e-02
	7.201761034156630e-02
	7.501842237233285e+00

 16	1.600000000000001e-02
	1.600000000000001e-02
	8.335959338871361e-02
	1.123210874062960e-02
	7.859170212934323e-02
	6.464217481259697e-03
	7.382381086997332e-02
	1.696326221890400e-03
	6.905591961060402e-02
	-3.071565037478463e-03
	6.428802835123516e-02
	-7.839456296846486e-03
	5.952013709186715e-02
	-1.260734755621452e-02
	5.475224583249912e-02
	-1.737523881558230e-02
	4.998435457313134e-02
	-2.214313007494971e-02
	7.212748464808025e-02
	7.501710351114072e+00

 17	1.700000000000001e-02
	1.700000000000001e-02
	8.435840914647856e-02
	1.212105019840509e-02
	7.947945934488365e-02
	7.242100396810332e-03
	7.460050954328890e-02
	2.363150595215253e-03
	6.972155974169381e-02
	-2.515799206379357e-03
	6.484260994009920e-02
	-7.394749007974953e-03
	5.996366013850359e-02
	-1.227369880957059e-02
	5.508471033690795e-02
	-1.715264861116610e-02
	5.020576053531245e-02
	-2.203159841276168e-02
	7.223735894807430e-02
	7.501578464299055e+00

 18	1.800000000000001e-02
	1.800000000000001e-02
	8.535722489798220e-02
	1.300999165645397e-02
	8.036721655443618e-02
	8.019983312908955e-03
	7.537720821089117e-02
	3.029974969364663e-03
	7.038719986734689e-02
	-1.960033374178556e-03
	6.539719152380367e-02
	-6.950041717722462e-03
	6.040718318025977e-02
	-1.194005006126586e-02
	5.541717483671638e-02
	-1.693005840480911e-02
	5.042716649317312e-02
	-2.192006674835300e-02
	7.234723324152635e-02
	7.501446576786726e+00

 19	1.900000000000001e-02
	1.900000000000001e-02
	8.635604064321123e-02
	1.389893311478606e-02
	8.125497375799728e-02
	8.797866229572338e-03
	7.615390687278357e-02
	3.696799344359056e-03
	7.105283998757030e-02
	-1.404267540853966e-03
	6.595177310235727e-02
	-6.505334426068404e-03
	6.085070621714282e-02
	-1.160640131128342e-02
	5.574963933192780e-02
	-1.670746819649901e-02
	5.064857244671220e-02
	-2.180853508171436e-02
	7.245710752842684e-02
	7.501314688575608e+00

 20	2.000000000000001e-02
	2.000000000000001e-02
	8.735485638215214e-02
	1.478787457339606e-02
	8.214273095554818e-02
	9.575749146791164e-03
	7.693060552894328e-02
	4.363623720185811e-03
	7.171848010233793e-02
	-8.485017064190428e-04
	6.650635467573307e-02
	-6.060627133023994e-03
	6.129422924912813e-02
	-1.127275255962967e-02
	5.608210382252244e-02
	-1.648487798623632e-02
	5.086997839591578e-02
	-2.169700341284336e-02
	7.256698180875941e-02
	7.501182799664193e+00

 21	2.100000000000001e-02
	2.100000000000001e-02
	8.835367211479142e-02
	1.567681603228359e-02
	8.303048814707499e-02
	1.035363206456743e-02
	7.770730417935884e-02
	5.030448096850472e-03
	7.238412021164187e-02
	-2.927358708657568e-04
	6.706093624392565e-02
	-5.615919838581208e-03
	6.173775227621020e-02
	-1.093910380629823e-02
	5.641456830849317e-02
	-1.626228777401577e-02
	5.109138434077561e-02
	-2.158547174173458e-02
	7.267685608251059e-02
	7.501050910050978e+00

 22	2.200000000000001e-02
	2.200000000000001e-02
	8.935248784111559e-02
	1.656575749145255e-02
	8.391824533256811e-02
	1.113151498290467e-02
	7.848400282402024e-02
	5.697272474357577e-03
	7.304976031547315e-02
	2.630299658096386e-04
	6.761551780692521e-02
	-5.171212542738605e-03
	6.218127529837695e-02
	-1.060545505128722e-02
	5.674703278982834e-02
	-1.603969755983574e-02
	5.131279028127982e-02
	-2.147394006838434e-02
	7.278673034966517e-02
	7.500919019734459e+00

 23	2.300000000000001e-02
	2.300000000000001e-02
	9.035130356111107e-02
	1.745469895089899e-02
	8.480600251201006e-02
	1.190939790179867e-02
	7.926070146290976e-02
	6.364096852699085e-03
	7.371540041381018e-02
	8.187958035999060e-04
	6.817009936471100e-02
	-4.726505245498232e-03
	6.262479831561286e-02
	-1.027180629459480e-02
	5.707949726651632e-02
	-1.581710734369148e-02
	5.153419621741963e-02
	-2.136240839278873e-02
	7.289660461020811e-02
	7.500787128713127e+00

 24	2.400000000000001e-02
	2.400000000000001e-02
	9.135011927476444e-02
	1.834364041063234e-02
	8.569375968539676e-02
	1.268728082126491e-02
	8.003740009602933e-02
	7.030921231897018e-03
	7.438104050666143e-02
	1.374561642530046e-03
	6.872468091729447e-02
	-4.281797946836689e-03
	6.306832132792774e-02
	-9.938157536203675e-03
	5.741196173856074e-02
	-1.559451712557060e-02
	5.175560214919383e-02
	-2.125087671493716e-02
	7.300647886413099e-02
	7.500655236985486e+00

 25	2.500000000000002e-02
	2.500000000000002e-02
	9.234893498206195e-02
	1.923258187064510e-02
	8.658151685270701e-02
	1.346516374129020e-02
	8.081409872335213e-02
	7.697745611936153e-03
	7.504668059399809e-02
	1.930327482582275e-03
	6.927926246464422e-02
	-3.837090646770389e-03
	6.351184433529157e-02
	-9.604508776123066e-03
	5.774442620593889e-02
	-1.537192690547619e-02
	5.197700807658576e-02
	-2.113934503482913e-02
	7.311635311141530e-02
	7.500523344550007e+00

 26	2.600000000000002e-02
	2.600000000000002e-02
	9.334775068299006e-02
	2.012152333094371e-02
	8.746927401393374e-02
	1.424304666188685e-02
	8.159079734487690e-02
	8.364569992829196e-03
	7.571232067581923e-02
	2.486093323771761e-03
	6.983384400676181e-02
	-3.392383345286229e-03
	6.395536733770381e-02
	-9.270860014344059e-03
	5.807689066864598e-02
	-1.514933668340156e-02
	5.219841399958848e-02
	-2.102781335245933e-02
	7.322622735204730e-02
	7.500391451405177e+00

 27	2.700000000000002e-02
	2.700000000000002e-02
	9.434656637753507e-02
	2.101046479152259e-02
	8.835703116905766e-02
	1.502092958304598e-02
	8.236749596058104e-02
	9.031394374568846e-03
	7.637796075210390e-02
	3.041859166092203e-03
	7.038842554362726e-02
	-2.947676042384578e-03
	6.439889033515048e-02
	-8.937211250862380e-03
	5.840935512667267e-02
	-1.492674645934126e-02
	5.241981991819378e-02
	-2.091628166782052e-02
	7.333610158601506e-02
	7.500259557549475e+00

 28	2.800000000000002e-02
	2.800000000000002e-02
	9.534538206568330e-02
	2.189940625238518e-02
	8.924478831806848e-02
	1.579881250477069e-02
	8.314419457045399e-02
	9.698218757155409e-03
	7.704360082283870e-02
	3.597625009540154e-03
	7.094300707522344e-02
	-2.502968738074200e-03
	6.484241332760911e-02
	-8.603562485687923e-03
	5.874181957999539e-02
	-1.470415623330210e-02
	5.264122583238121e-02
	-2.080474998091574e-02
	7.344597581329651e-02
	7.500127662981376e+00

 29	2.900000000000002e-02
	2.900000000000002e-02
	9.634419774742113e-02
	2.278834771353548e-02
	9.013254546095657e-02
	1.657669542706984e-02
	8.392089317449093e-02
	1.036504314060402e-02
	7.770924088802511e-02
	4.153390854137358e-03
	7.149758860155844e-02
	-2.058261432329372e-03
	6.528593631509171e-02
	-8.269913718796568e-03
	5.907428402862450e-02
	-1.448156600526337e-02
	5.286263174215770e-02
	-2.069321829172979e-02
	7.355585003388754e-02
	7.499995767699362e+00

 30	3.000000000000002e-02
	3.000000000000002e-02
	9.734301342273470e-02
	2.367728917496911e-02
	9.102030259770377e-02
	1.735457834993775e-02
	8.469759177267241e-02
	1.103186752490560e-02
	7.837488094764025e-02
	4.709156699872777e-03
	7.205217012260742e-02
	-1.613554125160371e-03
	6.572945929757427e-02
	-7.936264950193846e-03
	5.940674847254079e-02
	-1.425897577522723e-02
	5.308403764750740e-02
	-2.058168660026187e-02
	7.366572424776976e-02
	7.499863871701891e+00

 31	3.100000000000002e-02
	3.100000000000002e-02
	9.834182909161021e-02
	2.456623063668463e-02
	9.190805972829483e-02
	1.813246127336943e-02
	8.547429036497964e-02
	1.169869191005462e-02
	7.904052100166482e-02
	5.264922546741053e-03
	7.260675163835127e-02
	-1.168846816572595e-03
	6.617298227503762e-02
	-7.602616179885405e-03
	5.973921291172483e-02
	-1.403638554319835e-02
	5.330544354841188e-02
	-2.047015490651208e-02
	7.377559845492387e-02
	7.499731974987425e+00

 32	3.200000000000002e-02
	3.200000000000002e-02
	9.934064475403404e-02
	2.545517209869146e-02
	9.279581685272548e-02
	1.891034419738302e-02
	8.625098895141704e-02
	1.236551629607504e-02
	7.970616105010905e-02
	5.820688394767605e-03
	7.316133314880163e-02
	-7.241395065404749e-04
	6.661650524749355e-02
	-7.268967407848416e-03
	6.007167734618560e-02
	-1.381379530915834e-02
	5.352684944487566e-02
	-2.035862321046849e-02
	7.388547265534237e-02
	7.499600077554447e+00

 33	3.300000000000002e-02
	3.300000000000002e-02
	1.003394604099922e-01
	2.634411356098486e-02
	9.368357397097705e-02
	1.968822712196935e-02
	8.702768753196155e-02
	1.303234068295384e-02
	8.037180109294603e-02
	6.376454243937665e-03
	7.371591465392986e-02
	-2.794321950781234e-04
	6.706002821491407e-02
	-6.935318634094703e-03
	6.040414177589748e-02
	-1.359120507311064e-02
	5.374825533688155e-02
	-2.024709151212751e-02
	7.399534684900955e-02
	7.499468179401402e+00

 34	3.400000000000002e-02
	3.400000000000002e-02
	1.013382760594709e-01
	2.723305502356500e-02
	9.457133108303591e-02
	2.046611004712975e-02
	8.780438610660066e-02
	1.369916507069453e-02
	8.103744113016544e-02
	6.932220094259825e-03
	7.427049615373074e-02
	1.652751178242290e-04
	6.750355117729513e-02
	-6.601669858611797e-03
	6.073660620085910e-02
	-1.336861483504922e-02
	5.396966122442166e-02
	-2.013555981148655e-02
	7.410522103590862e-02
	7.499336280526752e+00

 35	3.500000000000002e-02
	3.500000000000002e-02
	1.023370917024563e-01
	2.812199648643295e-02
	9.545908818888919e-02
	2.124399297286525e-02
	8.858108467532150e-02
	1.436598945929680e-02
	8.170308116175304e-02
	7.487985945730073e-03
	7.482507764818631e-02
	6.099824321629463e-04
	6.794707413461919e-02
	-6.268021081404715e-03
	6.106907062105152e-02
	-1.314602459497197e-02
	5.419106710748427e-02
	-2.002402810854095e-02
	7.421509521602478e-02
	7.499204380928946e+00

 36	3.600000000000003e-02
	3.600000000000003e-02
	1.033359073389343e-01
	2.901093794959124e-02
	9.634684528852555e-02
	2.202187589918239e-02
	8.935778323811670e-02
	1.503281384877227e-02
	8.236872118770658e-02
	8.043751798363051e-03
	7.537965913729736e-02
	1.054689747952767e-03
	6.839059708688706e-02
	-5.934372302458212e-03
	6.140153503647608e-02
	-1.292343435287035e-02
	5.441247298606394e-02
	-1.991249640328267e-02
	7.432496938934660e-02
	7.499072480606439e+00

 37	3.700000000000003e-02
	3.700000000000003e-02
	1.043347229688912e-01
	2.989987941303632e-02
	9.723460238192745e-02
	2.279975882607243e-02
	9.013448179496356e-02
	1.569963823910900e-02
	8.303436120800013e-02
	8.599517652144707e-03
	7.593424062103583e-02
	1.499397065180305e-03
	6.883412003407142e-02
	-5.600723521783792e-03
	6.173399944710733e-02
	-1.270084410874793e-02
	5.463387886014320e-02
	-1.980096469571176e-02
	7.443484355585452e-02
	7.498940579557671e+00

 38	3.800000000000003e-02
	3.800000000000003e-02
	1.053335385923128e-01
	3.078882087677458e-02
	9.812235946908733e-02
	2.357764175354854e-02
	9.091118034586131e-02
	1.636646263032197e-02
	8.370000122263471e-02
	9.155283507094929e-03
	7.648882209940769e-02
	1.944104383868189e-03
	6.927764297618094e-02
	-5.267074739359320e-03
	6.206646385295342e-02
	-1.247825386258765e-02
	5.485528472972509e-02
	-1.968943298581608e-02
	7.454471771554107e-02
	7.498808677781093e+00

 39	3.900000000000003e-02
	3.900000000000003e-02
	1.063323542091852e-01
	3.167776234080003e-02
	9.901011654998516e-02
	2.435552468160036e-02
	9.168787889078552e-02
	1.703328702240024e-02
	8.436564123158538e-02
	9.711049363200878e-03
	7.704340357238604e-02
	2.388811704001251e-03
	6.972116591318640e-02
	-4.933425955198800e-03
	6.239892825398635e-02
	-1.225566361439850e-02
	5.507669059478665e-02
	-1.957790127359788e-02
	7.465459186838445e-02
	7.498676775275139e+00

 40	4.000000000000003e-02
	4.000000000000003e-02
	1.073311698194944e-01
	3.256670380512020e-02
	9.989787362461450e-02
	2.513340761024024e-02
	9.246457742973455e-02
	1.770011141536058e-02
	8.503128123485490e-02
	1.026681522048086e-02
	7.759798503997517e-02
	2.833519025600986e-03
	7.016468884509529e-02
	-4.599777169280256e-03
	6.273139265021403e-02
	-1.203307336416257e-02
	5.529809645533171e-02
	-1.946636955904498e-02
	7.476446601437714e-02
	7.498544872038249e+00

 41	4.100000000000003e-02
	4.100000000000003e-02
	1.083299854232262e-01
	3.345564526972974e-02
	1.007856306929559e-01
	2.591129053945907e-02
	9.324127596268519e-02
	1.836693580918870e-02
	8.569692123241482e-02
	1.082258107891852e-02
	7.815256650214465e-02
	3.278226348648841e-03
	7.060821177187497e-02
	-4.266128381621520e-03
	6.306385704160461e-02
	-1.181048311189101e-02
	5.551950231133512e-02
	-1.935483784216090e-02
	7.487434015349601e-02
	7.498412968068854e+00

 42	4.200000000000003e-02
	4.200000000000003e-02
	1.093288010203665e-01
	3.434458673463303e-02
	1.016733877549996e-01
	2.668917346926610e-02
	9.401797448963263e-02
	1.903376020389835e-02
	8.636256122426487e-02
	1.137834693853054e-02
	7.870714795889706e-02
	3.722933673164112e-03
	7.105173469353065e-02
	-3.932479592202144e-03
	6.339632142816440e-02
	-1.158789285756890e-02
	5.574090816279764e-02
	-1.924330612293467e-02
	7.498421428573224e-02
	7.498281063365381e+00

 43	4.300000000000003e-02
	4.300000000000003e-02
	1.103276166109014e-01
	3.523352819982857e-02
	1.025611448107299e-01
	2.746705639965804e-02
	9.479467301055941e-02
	1.970058459948683e-02
	8.702820121038821e-02
	1.193411279931604e-02
	7.926172941021742e-02
	4.167640999145593e-03
	7.149525761004698e-02
	-3.598830801023058e-03
	6.372878580987834e-02
	-1.136530260119225e-02
	5.596231400970914e-02
	-1.913177440136150e-02
	7.509408841107083e-02
	7.498149157926266e+00

 44	4.400000000000003e-02
	4.400000000000003e-02
	1.113264321948166e-01
	3.612246966532007e-02
	1.034489018601366e-01
	2.824493933063947e-02
	9.557137152545600e-02
	2.036740899595949e-02
	8.769384119077601e-02
	1.248987866127985e-02
	7.981631085609638e-02
	4.612348326600499e-03
	7.193878052141703e-02
	-3.265182008077676e-03
	6.406125018673887e-02
	-1.114271234275619e-02
	5.618371985206035e-02
	-1.902024267743629e-02
	7.520396252949710e-02
	7.498017251749927e+00

 45	4.500000000000003e-02
	4.500000000000003e-02
	1.123252477720978e-01
	3.701141113110826e-02
	1.043366589032061e-01
	2.902282226221595e-02
	9.634807003431375e-02
	2.103423339332297e-02
	8.835948116542076e-02
	1.304564452442855e-02
	8.037089229652633e-02
	5.057055655533618e-03
	7.238230342763138e-02
	-2.931533213362453e-03
	6.439371455873531e-02
	-1.092012208225884e-02
	5.640512568983892e-02
	-1.890871095115593e-02
	7.531383664099427e-02
	7.497885344834783e+00

 46	4.600000000000003e-02
	4.600000000000003e-02
	1.133240633427309e-01
	3.790035259718245e-02
	1.052244159399133e-01
	2.980070519436636e-02
	9.712476853709724e-02
	2.170105779155114e-02
	8.902512113428204e-02
	1.360141038873724e-02
	8.092547373146815e-02
	5.501762985922962e-03
	7.282582632865386e-02
	-2.597884416891016e-03
	6.472617892583989e-02
	-1.069753181970523e-02
	5.662653152302568e-02
	-1.879717922251882e-02
	7.542371074554415e-02
	7.497753437179243e+00

 47	4.700000000000003e-02
	4.700000000000003e-02
	1.143228789067017e-01
	3.878929406356037e-02
	1.061121729702620e-01
	3.057858812712063e-02
	9.790146703382227e-02
	2.236788219068091e-02
	8.969076109738255e-02
	1.415717625424126e-02
	8.148005516094291e-02
	5.946470317802488e-03
	7.326934922450414e-02
	-2.264235618635736e-03
	6.505864328806592e-02
	-1.047494155507367e-02
	5.684793735162799e-02
	-1.868564749151171e-02
	7.553358484313988e-02
	7.497621528781734e+00

 48	4.800000000000004e-02
	4.800000000000004e-02
	1.153216944639958e-01
	3.967823553022971e-02
	1.069999299942254e-01
	3.135647106046072e-02
	9.867816552445646e-02
	2.303470659069123e-02
	9.035640105468697e-02
	1.471294212092389e-02
	8.203463658491965e-02
	6.391177651158014e-03
	7.371287211515379e-02
	-1.930586818606972e-03
	6.539110764538880e-02
	-1.025235128837151e-02
	5.706934317562428e-02
	-1.857411575813597e-02
	7.564345893376022e-02
	7.497489619640656e+00

 49	4.900000000000004e-02
	4.900000000000004e-02
	1.163205100145989e-01
	4.056717699720380e-02
	1.078876870118027e-01
	3.213435399440624e-02
	9.945486400900515e-02
	2.370153099160879e-02
	9.102204100620770e-02
	1.526870798881180e-02
	8.258921800341071e-02
	6.835884986014347e-03
	7.415639500061326e-02
	-1.596938016782318e-03
	6.572357199781659e-02
	-1.002976101957966e-02
	5.729074899501924e-02
	-1.846258402237840e-02
	7.575333301739823e-02
	7.497357709754426e+00

 50	5.000000000000004e-02
	5.000000000000004e-02
	1.173193255584968e-01
	4.145611846446773e-02
	1.087754440229645e-01
	3.291223692893583e-02
	1.002315624874326e-01
	2.436835539340376e-02
	9.168768095190048e-02
	1.582447385787248e-02
	8.314379941636922e-02
	7.280592322341663e-03
	7.459991788083840e-02
	-1.263289213188669e-03
	6.605603634530809e-02
	-9.807170748718154e-03
	5.751215480977861e-02
	-1.835105228424760e-02
	7.586320709402540e-02
	7.497225799121431e+00

 51	5.100000000000004e-02
	5.100000000000004e-02
	1.183181410956750e-01
	4.234505993203462e-02
	1.096632010277095e-01
	3.369011986406855e-02
	1.010082609597435e-01
	2.503517979610307e-02
	9.235332089177797e-02
	1.638023972813836e-02
	8.369838082381328e-02
	7.725299660172998e-03
	7.504344075584790e-02
	-9.296404077923370e-04
	6.638850068788257e-02
	-9.584580475757887e-03
	5.773356061991702e-02
	-1.823952054372384e-02
	7.597308116364121e-02
	7.497093887740085e+00

 52	5.200000000000004e-02
	5.200000000000004e-02
	1.193169566261190e-01
	4.323400139989747e-02
	1.105509580260165e-01
	3.446800279979536e-02
	1.017849594259144e-01
	2.570200419969406e-02
	9.301896082581307e-02
	1.693600559959230e-02
	8.425296222571130e-02
	8.170006999490699e-03
	7.548696362560969e-02
	-5.959916006105931e-04
	6.672096502550841e-02
	-9.361990200711455e-03
	5.795496642540755e-02
	-1.812798880081281e-02
	7.608295522621988e-02
	7.496961975608770e+00

 53	5.300000000000004e-02
	5.300000000000004e-02
	1.203157721498146e-01
	4.412294286806073e-02
	1.114387150178753e-01
	3.524588573612233e-02
	1.025616578859369e-01
	2.636882860418526e-02
	9.368460075399984e-02
	1.749177147224854e-02
	8.480754362206311e-02
	8.614714340311844e-03
	7.593048649012642e-02
	-2.623427916262563e-04
	6.705342935818831e-02
	-9.139399923564544e-03
	5.817637222625002e-02
	-1.801645705550270e-02
	7.619282928175297e-02
	7.496830062725889e+00

 54	5.400000000000004e-02
	5.400000000000004e-02
	1.213145876667472e-01
	4.501188433652195e-02
	1.123264720032691e-01
	3.602376867304505e-02
	1.033383563397922e-01
	2.703565300956937e-02
	9.435024067631650e-02
	1.804753734609557e-02
	8.536212501284272e-02
	9.059421682622651e-03
	7.637400934936982e-02
	7.130601915018159e-05
	6.738589368589736e-02
	-8.916809644322267e-03
	5.839777802242491e-02
	-1.790492530779470e-02
	7.630270333021912e-02
	7.496698149089825e+00

 55	5.500000000000004e-02
	5.500000000000004e-02
	1.223134031769024e-01
	4.590082580529417e-02
	1.132142289821965e-01
	3.680165161058704e-02
	1.041150547874893e-01
	2.770247741587852e-02
	9.501588059278079e-02
	1.860330322117038e-02
	8.591670639807265e-02
	9.504129026461194e-03
	7.681753220336346e-02
	4.049548317505355e-04
	6.771835800865278e-02
	-8.694219362960512e-03
	5.861918381394173e-02
	-1.779339355767189e-02
	7.641257737161483e-02
	7.496566234698978e+00

 56	5.600000000000004e-02
	5.600000000000004e-02
	1.233122186802654e-01
	4.678976727435595e-02
	1.141019859546213e-01
	3.757953454871241e-02
	1.048917532289778e-01
	2.836930182306879e-02
	9.568152050333416e-02
	1.915906909742553e-02
	8.647128777769089e-02
	9.948836371782704e-03
	7.726105505204808e-02
	7.386036461399653e-04
	6.805082232640534e-02
	-8.471629079503176e-03
	5.884058960076220e-02
	-1.768186180514639e-02
	7.652245140590781e-02
	7.496434319551701e+00

 57	5.700000000000004e-02
	5.700000000000004e-02
	1.243110341768220e-01
	4.767870874372607e-02
	1.149897429205480e-01
	3.835741748745236e-02
	1.056684516642743e-01
	2.903612623117736e-02
	9.634716040799926e-02
	1.971483497490224e-02
	8.702586915172415e-02
	1.039354371862751e-02
	7.770457789544942e-02
	1.072252462352492e-03
	6.838328663917441e-02
	-8.249038793922331e-03
	5.906199538289958e-02
	-1.757033005019802e-02
	7.663232543309774e-02
	7.496302403646403e+00

 58	5.800000000000004e-02
	5.800000000000004e-02
	1.253098496665573e-01
	4.856765021339528e-02
	1.158774998799526e-01
	3.913530042679027e-02
	1.064451500933476e-01
	2.970295064018648e-02
	9.701280030674378e-02
	2.027060085358330e-02
	8.758045052014060e-02
	1.083825106698053e-02
	7.814810073353785e-02
	1.405901280377306e-03
	6.871575094693462e-02
	-8.026448506226344e-03
	5.928340116033096e-02
	-1.745879829282979e-02
	7.674219945316130e-02
	7.496170486981439e+00

 59	5.900000000000005e-02
	5.900000000000005e-02
	1.263086651494570e-01
	4.945659168337169e-02
	1.167652568328286e-01
	3.991318336674329e-02
	1.072218485162002e-01
	3.036977505011393e-02
	9.767844019957084e-02
	2.082636673348420e-02
	8.813503188294111e-02
	1.128295841685426e-02
	7.859162356631116e-02
	1.739550100224786e-03
	6.904821524968170e-02
	-7.803858216404641e-03
	5.950480693305227e-02
	-1.734726653303351e-02
	7.685207346608611e-02
	7.496038569555190e+00

 60	6.000000000000005e-02
	6.000000000000005e-02
	1.273074806255061e-01
	5.034553315364651e-02
	1.176530137791526e-01
	4.069106630729363e-02
	1.079985469327997e-01
	3.103659946094172e-02
	9.834408008644782e-02
	2.138213261458929e-02
	8.868961324009539e-02
	1.172766576823789e-02
	7.903514639374400e-02
	2.073198921888453e-03
	6.938067954739457e-02
	-7.581267924460025e-03
	5.972621270104610e-02
	-1.723573477080795e-02
	7.696194747185298e-02
	7.495906651366018e+00

 61	6.100000000000005e-02
	6.100000000000005e-02
	1.283062960946902e-01
	5.123447462423053e-02
	1.185407707189207e-01
	4.146894924846100e-02
	1.087752453431512e-01
	3.170342387269207e-02
	9.900971996738223e-02
	2.193789849692384e-02
	8.924419459161401e-02
	1.217237312115781e-02
	7.947866921584799e-02
	2.406847745392675e-03
	6.971314384008287e-02
	-7.358677630372727e-03
	5.994761846431747e-02
	-1.712420300613797e-02
	7.707182147045641e-02
	7.495774732412294e+00

 62	6.200000000000005e-02
	6.200000000000005e-02
	1.293051115569945e-01
	5.212341609512347e-02
	1.194285276521179e-01
	4.224683219024504e-02
	1.095519437472395e-01
	3.237024828536550e-02
	9.967535984235992e-02
	2.249366438048672e-02
	8.979877593748116e-02
	1.261708047560830e-02
	7.992219203260273e-02
	2.740496570729792e-03
	7.004560812772423e-02
	-7.136087334149048e-03
	6.016902422284539e-02
	-1.701267123902701e-02
	7.718169546187242e-02
	7.495642812692386e+00

 63	6.300000000000004e-02