Title: 
Date: Fri Oct 31 16:17:56  2025
Plotname: DC transfer characteristic
Flags: real
No. Variables: 20
No. Points: 5690
Variables:
	0	v(v-sweep)	voltage
	1	v(1)	voltage
	2	v(2)	voltage
	3	v(3)	voltage
	4	v(4)	voltage
	5	v(5)	voltage
	6	v(6)	voltage
	7	v(7)	voltage
	8	v(8)	voltage
	9	v(9)	voltage
	10	v(10)	voltage
	11	v(11)	voltage
	12	v(12)	voltage
	13	v(13)	voltage
	14	v(14)	voltage
	15	v(15)	voltage
	16	v(16)	voltage
	17	v(17)	voltage
	18	v(18)	voltage
	19	i(v1)	current
Values:
 0	2.997145549324221e-05
	2.997145549324221e-05
	7.342296700733425e-02
	5.623476351768296e-01
	6.102330568519047e-01
	1.667614197787588e-01
	2.080089201095184e-01
	-1.473064788179625e-01
	-9.893211728498855e-02
	-5.778713682159550e-01
	-5.299027131876868e-01
	-9.388222778079962e-01
	-8.861521602056359e-01
	-1.341545675235440e+00
	-1.289476005345361e+00
	-1.761766978598850e+00
	-1.711338911081890e+00
	-1.269590460029321e+00
	-1.191164028803094e+00
	8.173638924055110e+00

 1	1.029971455493242e-03
	1.029971455493242e-03
	7.442296027202346e-02
	5.633470019753525e-01
	6.112324192559592e-01
	1.677602388646013e-01
	2.090077354100577e-01
	-1.463089648054960e-01
	-9.793460771186070e-02
	-5.768741138345728e-01
	-5.289054632084115e-01
	-9.378255850287653e-01
	-8.851554722599674e-01
	-1.340549217447819e+00
	-1.288479552336199e+00
	-1.760770876158670e+00
	-1.710342813269517e+00
	-1.269523853838320e+00
	-1.191097429809325e+00
	8.173638173956302e+00

 2	2.029971455493242e-03
	2.029971455493242e-03
	7.542295353671268e-02
	5.643463687738777e-01
	6.122317816600160e-01
	1.687590579381233e-01
	2.100065506982767e-01
	-1.453114507438251e-01
	-9.693709808952837e-02
	-5.758768593999141e-01
	-5.279082131758593e-01
	-9.368288921815753e-01
	-8.841587842463395e-01
	-1.339552759589618e+00
	-1.287483099256457e+00
	-1.759774773640370e+00
	-1.709346715379026e+00
	-1.269457247642392e+00
	-1.191030830810629e+00
	8.173637423857496e+00

 3	3.029971455493242e-03
	3.029971455493242e-03
	7.642294680140135e-02
	5.653457355723521e-01
	6.132311440640217e-01
	1.697578770158467e-01
	2.110053659906966e-01
	-1.443139366626904e-01
	-9.593958844773251e-02
	-5.748796049447951e-01
	-5.269109631228474e-01
	-9.358321993102785e-01
	-8.831620962086053e-01
	-1.338556301706658e+00
	-1.286486646151956e+00
	-1.758778671095452e+00
	-1.708350617461916e+00
	-1.269390641444193e+00
	-1.190964231809662e+00
	8.173636673758629e+00

 4	4.029971455493242e-03
	4.029971455493242e-03
	7.742294006608874e-02
	5.663451023707051e-01
	6.142305064679052e-01
	1.707566961019038e-01
	2.120041812914497e-01
	-1.433164225427392e-01
	-9.494207876712102e-02
	-5.738823504488780e-01
	-5.259137130290383e-01
	-9.348355063909590e-01
	-8.821654081228490e-01
	-1.337559843774399e+00
	-1.285490192998157e+00
	-1.757782568497464e+00
	-1.707354519491737e+00
	-1.269324035244580e+00
	-1.190897632807282e+00
	8.173635923659617e+00

 5	5.029971455493242e-03
	5.029971455493242e-03
	7.842293333077696e-02
	5.673444691691364e-01
	6.152298688718674e-01
	1.717555151966587e-01
	2.130029966009008e-01
	-1.423189083832679e-01
	-9.394456904698917e-02
	-5.728850959113896e-01
	-5.249164628936573e-01
	-9.338388134227044e-01
	-8.811687199881576e-01
	-1.336563385791902e+00
	-1.284493739794120e+00
	-1.756786465845500e+00
	-1.706358421467582e+00
	-1.269257429037971e+00
	-1.190831033797906e+00
	8.173635173560701e+00

 6	6.029971455493242e-03
	6.029971455493242e-03
	7.942292659546479e-02
	5.683438359675301e-01
	6.162292312757920e-01
	1.727543342999520e-01
	2.140018119188904e-01
	-1.413213941845043e-01
	-9.294705928756497e-02
	-5.718878413325734e-01
	-5.239192127169486e-01
	-9.328421204057651e-01
	-8.801720318047814e-01
	-1.335566927759400e+00
	-1.283497286540078e+00
	-1.755790363139793e+00
	-1.705362323389685e+00
	-1.269190822827089e+00
	-1.190764434784258e+00
	8.173634423461738e+00

 7	7.029971455493242e-03
	7.029971455493242e-03
	8.042291986015089e-02
	5.693432027657621e-01
	6.172285936795536e-01
	1.737531534114838e-01
	2.150006272451172e-01
	-1.403238799471689e-01
	-9.194954948957026e-02
	-5.708905867132319e-01
	-5.229219624997159e-01
	-9.318454273411303e-01
	-8.791753435737112e-01
	-1.334570469677950e+00
	-1.282500833237089e+00
	-1.754794260381402e+00
	-1.704366225259104e+00
	-1.269124216613513e+00
	-1.190697835767915e+00
	8.173633673362584e+00

 8	8.029971455493242e-03
	8.029971455493242e-03
	8.142291312483910e-02
	5.703425695641904e-01
	6.182279560835126e-01
	1.747519725319477e-01
	2.159994425802774e-01
	-1.393263656697925e-01
	-9.095203965153326e-02
	-5.698933320517419e-01
	-5.219247122403333e-01
	-9.308487342268519e-01
	-8.781786552929959e-01
	-1.333574011545485e+00
	-1.281504379883084e+00
	-1.753798157568163e+00
	-1.703370127073674e+00
	-1.269057610397260e+00
	-1.190631236748897e+00
	8.173632923263666e+00

 9	9.029971455493242e-03
	9.029971455493242e-03
	8.242290638952512e-02
	5.713419363624153e-01
	6.192273184872671e-01
	1.757507916606118e-01
	2.169982579236366e-01
	-1.383288513538677e-01
	-8.995452977494919e-02
	-5.688960773497470e-01
	-5.209274619404474e-01
	-9.298520410649174e-01
	-8.771819669646260e-01
	-1.332577553364135e+00
	-1.280507926480195e+00
	-1.752802054702355e+00
	-1.702374028835677e+00
	-1.268991004176856e+00
	-1.190564637725727e+00
	8.173632173164505e+00

 10	1.002997145549324e-02
	1.002997145549324e-02
	8.342289965421135e-02
	5.723413031606600e-01
	6.202266808910416e-01
	1.767496107978866e-01
	2.179970732756066e-01
	-1.373313369985565e-01
	-8.895701985897850e-02
	-5.678988226063246e-01
	-5.199302115991336e-01
	-9.288553478541721e-01
	-8.761852785874450e-01
	-1.331581095132636e+00
	-1.279511473027157e+00
	-1.751805951782634e+00
	-1.701377930543766e+00
	-1.268924397952076e+00
	-1.190498038698182e+00
	8.173631423065364e+00

 11	1.102997145549324e-02
	1.102997145549324e-02
	8.442289291889689e-02
	5.733406699588394e-01
	6.212260432947501e-01
	1.777484299436171e-01
	2.189958886360320e-01
	-1.363338226042000e-01
	-8.795950990396298e-02
	-5.669015678218512e-01
	-5.189329612167694e-01
	-9.278586545951101e-01
	-8.751885901619479e-01
	-1.330584636851544e+00
	-1.278515019524526e+00
	-1.750809848809553e+00
	-1.700381832198495e+00
	-1.268857791726403e+00
	-1.190431439669745e+00
	8.173630672966148e+00

 12	1.202997145549324e-02
	1.202997145549324e-02
	8.542288618358185e-02
	5.743400367569643e-01
	6.222254056984040e-01
	1.787472490978025e-01
	2.199947040049119e-01
	-1.353363081707774e-01
	-8.696199990988175e-02
	-5.659043129963024e-01
	-5.179357107933300e-01
	-9.268619612876797e-01
	-8.741919016880828e-01
	-1.329588178520779e+00
	-1.277518565972223e+00
	-1.749813745783054e+00
	-1.699385733799807e+00
	-1.268791185496419e+00
	-1.190364840636996e+00
	8.173629922866867e+00

 13	1.302997145549325e-02
	1.302997145549325e-02
	8.642287944826685e-02
	5.753394035550917e-01
	6.232247681020603e-01
	1.797460682605664e-01
	2.209935193823704e-01
	-1.343387936980696e-01
	-8.596448987651543e-02
	-5.649070581294393e-01
	-5.169384603285764e-01
	-9.258652679315900e-01
	-8.731952131655581e-01
	-1.328591720140047e+00
	-1.276522112369953e+00
	-1.748817642702860e+00
	-1.698389635347425e+00
	-1.268724579260625e+00
	-1.190298241598438e+00
	8.173629172767590e+00

 14	1.402997145549325e-02
	1.402997145549325e-02
	8.742287271295153e-02
	5.763387703531905e-01
	6.242241305056877e-01
	1.807448874318460e-01
	2.219923347683443e-01
	-1.333412791861435e-01
	-8.496697980393085e-02
	-5.639098032213298e-01
	-5.159412098225764e-01
	-9.248685745269360e-01
	-8.721985245944696e-01
	-1.327595261709455e+00
	-1.275525658717823e+00
	-1.747821539569033e+00
	-1.697393536841409e+00
	-1.268657973022618e+00
	-1.190231642557668e+00
	8.173628422668280e+00

 15	1.502997145549325e-02
	1.502997145549325e-02
	8.842286597763613e-02
	5.773381371512823e-01
	6.252234929093083e-01
	1.817437066116860e-01
	2.229911501628787e-01
	-1.323437646349752e-01
	-8.396946969210420e-02
	-5.629125482719534e-01
	-5.149439592753098e-01
	-9.238718810737199e-01
	-8.712018359748190e-01
	-1.326598803228997e+00
	-1.274529205015827e+00
	-1.746825436381580e+00
	-1.696397438281768e+00
	-1.268591366780184e+00
	-1.190165043512471e+00
	8.173627672568959e+00

 16	1.602997145549325e-02
	1.602997145549325e-02
	8.942285924231873e-02
	5.783375039491838e-01
	6.262228553127370e-01
	1.827425257997159e-01
	2.239899655656017e-01
	-1.313462500453192e-01
	-8.297195954179128e-02
	-5.619152932821441e-01
	-5.139467086876116e-01
	-9.228751875729162e-01
	-8.702051473075824e-01
	-1.325602344699721e+00
	-1.273532751265015e+00
	-1.745829333141621e+00
	-1.695401339669621e+00
	-1.268524760535055e+00
	-1.190098444464580e+00
	8.173626922469415e+00

 17	1.702997145549325e-02
	1.702997145549325e-02
	9.042285250700277e-02
	5.793368707472234e-01
	6.272222177163049e-01
	1.837413449965889e-01
	2.249887809771687e-01
	-1.303487354157950e-01
	-8.197444935160900e-02
	-5.609180382503711e-01
	-5.129494580579489e-01
	-9.218784940226712e-01
	-8.692084585909035e-01
	-1.324605886119634e+00
	-1.272536297463390e+00
	-1.744833229847037e+00
	-1.694405241002849e+00
	-1.268458154286053e+00
	-1.190031845412815e+00
	8.173626172370032e+00

 18	1.802997145549325e-02
	1.802997145549325e-02
	9.142284577168611e-02
	5.803362375451954e-01
	6.282215801198047e-01
	1.847401642019025e-01
	2.259875963971759e-01
	-1.293512207472423e-01
	-8.097693912239881e-02
	-5.599207831775639e-01
	-5.119522073872521e-01
	-9.208818004240855e-01
	-8.682117698258840e-01
	-1.323609427489905e+00
	-1.271539843612124e+00
	-1.743837126499066e+00
	-1.693409142282690e+00
	-1.268391548033130e+00
	-1.189965246357130e+00
	8.173625422270570e+00

 19	1.902997145549325e-02
	1.902997145549325e-02
	9.242283903636857e-02
	5.813356043430840e-01
	6.292209425232205e-01
	1.857389834156220e-01
	2.269864118255885e-01
	-1.283537060397427e-01
	-7.997942885424224e-02
	-5.589235280638123e-01
	-5.109549566756115e-01
	-9.198851067773355e-01
	-8.672150810127010e-01
	-1.322612968810738e+00
	-1.270543389711420e+00
	-1.742841023097918e+00
	-1.692413043509355e+00
	-1.268324941776022e+00
	-1.189898647297261e+00
	8.173624672171011e+00

 20	2.002997145549325e-02
	2.002997145549325e-02
	9.342283230105143e-02
	5.823349711410102e-01
	6.302203049266741e-01
	1.867378026379713e-01
	2.279852272626310e-01
	-1.273561912928612e-01
	-7.898191854670364e-02
	-5.579262729086401e-01
	-5.099577059225504e-01
	-9.188884130817974e-01
	-8.662183921507299e-01
	-1.321616510081477e+00
	-1.269546935760623e+00
	-1.741844919642899e+00
	-1.691416944682149e+00
	-1.268258335516192e+00
	-1.189832048234670e+00
	8.173623922071496e+00

 21	2.102997145549325e-02
	2.102997145549325e-02
	9.442282556573317e-02
	5.833343379388318e-01
	6.312196673300225e-01
	1.877366218686964e-01
	2.289840427080488e-01
	-1.263586765070819e-01
	-7.798440820026795e-02
	-5.569290177125775e-01
	-5.089604551285996e-01
	-9.178917193381131e-01
	-8.652217032406133e-01
	-1.320620051302780e+00
	-1.268550481760391e+00
	-1.740848816134735e+00
	-1.690420845801797e+00
	-1.268191729249522e+00
	-1.189765449165239e+00
	8.173623171971858e+00

 22	2.202997145549325e-02
	2.202997145549325e-02
	9.542281883041445e-02
	5.843337047366135e-01
	6.322190297333308e-01
	1.887354411079256e-01
	2.299828581619705e-01
	-1.253611616821419e-01
	-7.698689781467162e-02
	-5.559317624753313e-01
	-5.079632042934651e-01
	-9.168950255459605e-01
	-8.642250142820287e-01
	-1.319623592474330e+00
	-1.267554027710405e+00
	-1.739852712573059e+00
	-1.689424746867936e+00
	-1.268125122981977e+00
	-1.189698850094934e+00
	8.173622421872167e+00

 23	2.302997145549325e-02
	2.302997145549325e-02
	9.642281209509602e-02
	5.853330715344186e-01
	6.332183921366624e-01
	1.897342603557574e-01
	2.309816736244949e-01
	-1.243636468178614e-01
	-7.598938738973481e-02
	-5.549345071967100e-01
	-5.069659534169555e-01
	-9.158983317050444e-01
	-8.632283252746801e-01
	-1.318627133595789e+00
	-1.266557573610328e+00
	-1.738856608957519e+00
	-1.688428647880209e+00
	-1.268058516710122e+00
	-1.189632251020319e+00
	8.173621671772507e+00

 24	2.402997145549325e-02
	2.402997145549325e-02
	9.742280535977645e-02
	5.863324383321149e-01
	6.342177545398846e-01
	1.907330796119427e-01
	2.319804890953721e-01
	-1.233661319147589e-01
	-7.499187692597675e-02
	-5.539372518772797e-01
	-5.059687024996378e-01
	-9.149016378161132e-01
	-8.622316362193175e-01
	-1.317630674667966e+00
	-1.265561119460970e+00
	-1.737860505289000e+00
	-1.687432548839504e+00
	-1.267991910437462e+00
	-1.189565651944900e+00
	8.173620921672722e+00

 25	2.502997145549326e-02
	2.502997145549326e-02
	9.842279862445738e-02
	5.873318051298608e-01
	6.352171169431569e-01
	1.917318988768088e-01
	2.329793045749305e-01
	-1.223686169721099e-01
	-7.399436642267174e-02
	-5.529399965162424e-01
	-5.049714515407125e-01
	-9.139049438781858e-01
	-8.612349471149581e-01
	-1.316634215689808e+00
	-1.264564665261277e+00
	-1.736864401566325e+00
	-1.686436449744643e+00
	-1.267925304159017e+00
	-1.189499052863696e+00
	8.173620171572992e+00

 26	2.602997145549326e-02
	2.602997145549326e-02
	9.942279188913693e-02
	5.883311719274769e-01
	6.362164793462982e-01
	1.927307181499870e-01
	2.339781200628002e-01
	-1.213711019907646e-01
	-7.299685588067145e-02
	-5.519427411145399e-01
	-5.039742005411231e-01
	-9.129082498923774e-01
	-8.602382579627190e-01
	-1.315637756662521e+00
	-1.263568211012456e+00
	-1.735868297790827e+00
	-1.685440350596960e+00
	-1.267858697876975e+00
	-1.189432453778895e+00
	8.173619421473109e+00

 27	2.702997145549326e-02
	2.702997145549326e-02
	1.004227851538167e-01
	5.893305387251124e-01
	6.372158417494592e-01
	1.937295374317463e-01
	2.349769355592510e-01
	-1.203735869701131e-01
	-7.199934529936486e-02
	-5.509454856714959e-01
	-5.029769495001920e-01
	-9.119115558578935e-01
	-8.592415687618042e-01
	-1.314641297585241e+00
	-1.262571756713641e+00
	-1.734872193961557e+00
	-1.684444251395504e+00
	-1.267792091590997e+00
	-1.189365854690159e+00
	8.173618671373248e+00

 28	2.802997145549326e-02
	2.802997145549326e-02
	1.014227784184955e-01
	5.903299055226583e-01
	6.382152041525300e-01
	1.947283567219252e-01
	2.359757510641210e-01
	-1.193760719104596e-01
	-7.100183467905671e-02
	-5.499482301874441e-01
	-5.019796984182536e-01
	-9.109148617751147e-01
	-8.582448795125948e-01
	-1.313644838458373e+00
	-1.261575302365239e+00
	-1.733876090078991e+00
	-1.683448152140753e+00
	-1.267725485301134e+00
	-1.189299255597538e+00
	8.173617921273282e+00

 29	2.902997145549326e-02
	2.902997145549326e-02
	1.024227716831759e-01
	5.913292723203539e-01
	6.392145665557515e-01
	1.957271760209358e-01
	2.369745665778235e-01
	-1.183785568110201e-01
	-7.000432401896171e-02
	-5.489509746615235e-01
	-5.009824472944457e-01
	-9.099181676430421e-01
	-8.572481902140910e-01
	-1.312648379280864e+00
	-1.260578847966195e+00
	-1.732879986141949e+00
	-1.682452052831526e+00
	-1.267658879008378e+00
	-1.189232656502024e+00
	8.173617171173492e+00

 30	3.002997145549326e-02
	3.002997145549326e-02
	1.034227649478541e-01
	5.923286391178481e-01
	6.402139289587701e-01
	1.967259953281560e-01
	2.379733820997345e-01
	-1.173810416730342e-01
	-6.900681332032160e-02
	-5.479537190950984e-01
	-4.999851961301344e-01
	-9.089214734632804e-01
	-8.562515008678993e-01
	-1.311651920054413e+00
	-1.259582393518211e+00
	-1.731883882152263e+00
	-1.681455953469656e+00
	-1.267592272710620e+00
	-1.189166057401510e+00
	8.173616421073467e+00

 31	3.102997145549326e-02
	3.102997145549326e-02
	1.044227582125322e-01
	5.933280059153256e-01
	6.412132913617720e-01
	1.977248146438937e-01
	2.389721976301629e-01
	-1.163835264958765e-01
	-6.800930258250984e-02
	-5.469564634874770e-01
	-4.989879449246268e-01
	-9.079247792350125e-01
	-8.552548114732015e-01
	-1.310655460778163e+00
	-1.258585939020428e+00
	-1.730887778109048e+00
	-1.680459854054257e+00
	-1.267525666410366e+00
	-1.189099458298499e+00
	8.173615670973419e+00

 32	3.202997145549326e-02
	3.202997145549326e-02
	1.054227514772102e-01
	5.943273727127931e-01
	6.422126537647637e-01
	1.987236339681603e-01
	2.399710131691200e-01
	-1.153860112795652e-01
	-6.701179180554463e-02
	-5.459592078386885e-01
	-4.979906936779526e-01
	-9.069280849582642e-01
	-8.542581220300236e-01
	-1.309659001452125e+00
	-1.257589484472857e+00
	-1.729891674012305e+00
	-1.679463754585330e+00
	-1.267459060107931e+00
	-1.189032859193307e+00
	8.173614920873360e+00

 33	3.302997145549326e-02
	3.302997145549326e-02
	1.064227447418876e-01
	5.953267395102066e-01
	6.432120161677012e-01
	1.997224533009194e-01
	2.409698287165694e-01
	-1.143884960241124e-01
	-6.601428098943821e-02
	-5.449619521487359e-01
	-4.969934423901143e-01
	-9.059313906330544e-01
	-8.532614325383844e-01
	-1.308662542076327e+00
	-1.256593029875526e+00
	-1.728895569861993e+00
	-1.678467655062834e+00
	-1.267392453798411e+00
	-1.188966260081031e+00
	8.173614170773236e+00

 34	3.402997145549326e-02
	3.402997145549326e-02
	1.074227380065651e-01
	5.963261063076346e-01
	6.442113785706531e-01
	2.007212726422409e-01
	2.419686442725812e-01
	-1.133909807294337e-01
	-6.501677013410595e-02
	-5.439646964175319e-01
	-4.959961910610249e-01
	-9.049346962592872e-01
	-8.522647429981882e-01
	-1.307666082650680e+00
	-1.255596575228346e+00
	-1.727899465658127e+00
	-1.677471555486785e+00
	-1.267325847486749e+00
	-1.188899660966614e+00
	8.173613420673128e+00

 35	3.502997145549326e-02
	3.502997145549326e-02
	1.084227312712425e-01
	5.973254731050408e-01
	6.452107409735833e-01
	2.017200919921028e-01
	2.429674598371333e-01
	-1.123934653954962e-01
	-6.401925923951471e-02
	-5.429674406450332e-01
	-4.949989396906407e-01
	-9.039380018368637e-01
	-8.512680534093352e-01
	-1.306669623175054e+00
	-1.254600120531187e+00
	-1.726903361400511e+00
	-1.676475455856985e+00
	-1.267259241171459e+00
	-1.188833061848569e+00
	8.173612670572997e+00

 36	3.602997145549326e-02
	3.602997145549326e-02
	1.094227245359175e-01
	5.983248399022292e-01
	6.462101033762939e-01
	2.027189113501135e-01
	2.439662754098329e-01
	-1.113959500232265e-01
	-6.302174830659310e-02
	-5.419701848322730e-01
	-4.940016882799965e-01
	-9.029413073670640e-01
	-8.502713637731079e-01
	-1.305673163650811e+00
	-1.253603665785413e+00
	-1.725907257090592e+00
	-1.675479356174884e+00
	-1.267192634850580e+00
	-1.188766462724935e+00
	8.173611920472609e+00

 37	3.702997145549326e-02
	3.702997145549326e-02
	1.104227178005938e-01
	5.993242066995473e-01
	6.472094657791355e-01
	2.037177307169447e-01
	2.449650909913538e-01
	-1.103984346111095e-01
	-6.202423733382309e-02
	-5.409729289775677e-01
	-4.930044368274061e-01
	-9.019446128478625e-01
	-8.492746740874778e-01
	-1.304676704075816e+00
	-1.252607210988885e+00
	-1.724911152726084e+00
	-1.674483256438192e+00
	-1.267126028531735e+00
	-1.188699863603336e+00
	8.173611170372372e+00

 38	3.802997145549326e-02
	3.802997145549326e-02
	1.114227110652699e-01
	6.003235734968386e-01
	6.482088281819498e-01
	2.047165500922593e-01
	2.459639065813579e-01
	-1.094009191599382e-01
	-6.102672632199910e-02
	-5.399756730818016e-01
	-4.920071853337555e-01
	-9.009479182803074e-01
	-8.482779843534943e-01
	-1.303680244451176e+00
	-1.251610756142714e+00
	-1.723915048308215e+00
	-1.673487156648141e+00
	-1.267059422204877e+00
	-1.188633264473724e+00
	8.173610420272105e+00

 39	3.902997145549326e-02
	3.902997145549326e-02
	1.124227043299449e-01
	6.013229402940278e-01
	6.492081905846613e-01
	2.057153694759672e-01
	2.469627221797547e-01
	-1.084034036698357e-01
	-6.002921527124445e-02
	-5.389784171451021e-01
	-4.910099337991719e-01
	-8.999512236645644e-01
	-8.472812945713238e-01
	-1.302683784777069e+00
	-1.250614301247076e+00
	-1.722918943837158e+00
	-1.672491056804902e+00
	-1.266992815874224e+00
	-1.188566665340317e+00
	8.173609670171714e+00

 40	4.002997145549327e-02
	4.002997145549327e-02
	1.134226975946208e-01
	6.023223070912953e-01
	6.502075529874518e-01
	2.067141888683662e-01
	2.479615377868430e-01
	-1.074058881402661e-01
	-5.903170418102247e-02
	-5.379811611668881e-01
	-4.900126822230735e-01
	-8.989545289999517e-01
	-8.462846047402832e-01
	-1.301687325052780e+00
	-1.249617846301255e+00
	-1.721922839312120e+00
	-1.671494956907682e+00
	-1.266926209541530e+00
	-1.188500066204870e+00
	8.173608920071418e+00

 41	4.102997145549327e-02
	4.102997145549327e-02
	1.144226908592938e-01
	6.033216738882977e-01
	6.512069153899753e-01
	2.077130082688559e-01
	2.489603534020207e-01
	-1.064083725723760e-01
	-5.803419305248149e-02
	-5.369839051484140e-01
	-4.890154306067166e-01
	-8.979578342879153e-01
	-8.452879148618203e-01
	-1.300690865279807e+00
	-1.248621391306753e+00
	-1.720926734734718e+00
	-1.670498856958098e+00
	-1.266859603203502e+00
	-1.188433467064089e+00
	8.173608169970809e+00

 42	4.202997145549327e-02
	4.202997145549327e-02
	1.154226841239682e-01
	6.043210406854269e-01
	6.522062777926265e-01
	2.087118276781355e-01
	2.499591690259888e-01
	-1.054108569647871e-01
	-5.703668188424095e-02
	-5.359866490881641e-01
	-4.880181789485831e-01
	-8.969611395266699e-01
	-8.442912249341477e-01
	-1.299694405456285e+00
	-1.247624936261700e+00
	-1.719930630102961e+00
	-1.669502756954159e+00
	-1.266792996863160e+00
	-1.188366867920996e+00
	8.173607419870349e+00

 43	4.302997145549327e-02
	4.302997145549327e-02
	1.164226773886427e-01
	6.053204074825727e-01
	6.532056401952941e-01
	2.097106470959707e-01
	2.509579846585126e-01
	-1.044133413179911e-01
	-5.603917067679338e-02
	-5.349893929866832e-01
	-4.870209272492186e-01
	-8.959644447168993e-01
	-8.432945349579501e-01
	-1.298697945582943e+00
	-1.246628481166827e+00
	-1.718934525417644e+00
	-1.668506656896661e+00
	-1.266726390519238e+00
	-1.188300268774321e+00
	8.173606669769908e+00

 44	4.402997145549327e-02
	4.402997145549327e-02
	1.174226706533163e-01
	6.063197742796269e-01
	6.542050025978700e-01
	2.107094665222347e-01
	2.519568002994647e-01
	-1.034158256321833e-01
	-5.504165943033439e-02
	-5.339921368441801e-01
	-4.860236755088324e-01
	-8.949677498588142e-01
	-8.422978449334384e-01
	-1.297701485659989e+00
	-1.245632026022343e+00
	-1.717938420678976e+00
	-1.667510556785812e+00
	-1.266659784170429e+00
	-1.188233669622761e+00
	8.173605919669360e+00

 45	4.502997145549327e-02
	4.502997145549327e-02
	1.184226639179898e-01
	6.073191410766792e-01
	6.552043650004435e-01
	2.117082859570481e-01
	2.529556159489662e-01
	-1.024183099071890e-01
	-5.404414814468908e-02
	-5.329948806604690e-01
	-4.850264237272383e-01
	-8.939710549522339e-01
	-8.413011548604316e-01
	-1.296705025687247e+00
	-1.244635570828071e+00
	-1.716942315886740e+00
	-1.666514456621395e+00
	-1.266593177817647e+00
	-1.188167070467228e+00
	8.173605169568807e+00

 46	4.602997145549327e-02
	4.602997145549327e-02
	1.194226571826629e-01
	6.083185078736822e-01
	6.562037274029676e-01
	2.127071054003036e-01
	2.539544316069093e-01
	-1.014207941432376e-01
	-5.304663682008725e-02
	-5.319976244358019e-01
	-4.840291719046888e-01
	-8.929743599974292e-01
	-8.403044647392011e-01
	-1.295708565664996e+00
	-1.243639115584292e+00
	-1.715946211041283e+00
	-1.665518356403758e+00
	-1.266526571461528e+00
	-1.188100471308358e+00
	8.173604419468198e+00

 47	4.702997145549327e-02
	4.702997145549327e-02
	1.204226504473339e-01
	6.093178746704933e-01
	6.572030898052985e-01
	2.137059248518050e-01
	2.549532472730976e-01
	-1.004232783405942e-01
	-5.204912545679412e-02
	-5.310003681704591e-01
	-4.830319200414644e-01
	-8.919776649947011e-01
	-8.393077745700480e-01
	-1.294712105593548e+00
	-1.242642660291314e+00
	-1.714950106142918e+00
	-1.664522256133213e+00
	-1.266459965104954e+00
	-1.188033872149033e+00
	8.173603669367363e+00

 48	4.802997145549327e-02
	4.802997145549327e-02
	1.214226437120061e-01
	6.103172414674207e-01
	6.582024522077465e-01
	2.147047443120606e-01
	2.559520629480406e-01
	-9.942576249839002e-02
	-5.105161405393985e-02
	-5.300031118634989e-01
	-4.820346681366220e-01
	-8.909809699429789e-01
	-8.383110843519003e-01
	-1.293715645471767e+00
	-1.241646204948005e+00
	-1.713954001190436e+00
	-1.663526155808551e+00
	-1.266393358741463e+00
	-1.187967272982793e+00
	8.173602919266663e+00

 49	4.902997145549327e-02
	4.902997145549327e-02
	1.224226369766775e-01
	6.113166082642717e-01
	6.592018146101174e-01
	2.157035637807194e-01
	2.569508786313862e-01
	-9.842824661724786e-02
	-5.005410261214808e-02
	-5.290058555155979e-01
	-4.810374161908394e-01
	-8.899842748430555e-01
	-8.373143940855519e-01
	-1.292719185300504e+00
	-1.240649749555213e+00
	-1.712957896184699e+00
	-1.662530055430634e+00
	-1.266326752374563e+00
	-1.187900673813143e+00
	8.173602169165875e+00

 50	5.002997145549327e-02
	5.002997145549327e-02
	1.234226302413495e-01
	6.123159750611755e-01
	6.602011770125418e-01
	2.167023832580590e-01
	2.579496943234130e-01
	-9.743073069662561e-02
	-4.905659113087578e-02
	-5.280085991261630e-01
	-4.800401642035225e-01
	-8.889875796942084e-01
	-8.363177037702791e-01
	-1.291722725078982e+00
	-1.239653294112162e+00
	-1.711961791124949e+00
	-1.661533954998705e+00
	-1.266260146004231e+00
	-1.187834074640062e+00
	8.173601419065147e+00

 51	5.102997145549328e-02
	5.102997145549328e-02
	1.244226235060199e-01
	6.133153418579367e-01
	6.612005394148223e-01
	2.177012027436799e-01
	2.589485100237203e-01
	-9.643321473733790e-02
	-4.805907961093900e-02
	-5.270113426960881e-01
	-4.790429121755665e-01
	-8.879908844975342e-01
	-8.353210134071809e-01
	-1.290726264808393e+00
	-1.238656838620046e+00
	-1.710965686012431e+00
	-1.660537854514008e+00
	-1.266193539630282e+00
	-1.187767475463364e+00
	8.173600668964248e+00

 52	5.202997145549328e-02
	5.202997145549328e-02
	1.254226167706906e-01
	6.143147086547112e-01
	6.621999018171162e-01
	2.187000222378820e-01
	2.599473257326088e-01
	-9.543569873879182e-02
	-4.706156805174384e-02
	-5.260140862247236e-01
	-4.780456601063209e-01
	-8.869941892522273e-01
	-8.343243229954495e-01
	-1.289729804487852e+00
	-1.237660383077976e+00
	-1.709969580846204e+00
	-1.659541753975601e+00
	-1.266126933252828e+00
	-1.187700876283162e+00
	8.173599918863371e+00

 53	5.302997145549328e-02
	5.302997145549328e-02
	1.264226100353607e-01
	6.153140754514462e-01
	6.631992642193706e-01
	2.196988417405766e-01
	2.609461414499897e-01
	-9.443818270112464e-02
	-4.606405645342771e-02
	-5.250168297122155e-01
	-4.770484079959320e-01
	-8.859974939584567e-01
	-8.333276325352547e-01
	-1.288733344117531e+00
	-1.236663927486127e+00
	-1.708973475626398e+00
	-1.658545653383617e+00
	-1.266060326871907e+00
	-1.187634277099492e+00
	8.173599168762443e+00

 54	5.402997145549328e-02
	5.402997145549328e-02
	1.274226033000303e-01
	6.163134422481211e-01
	6.641986266215643e-01
	2.206976612517076e-01
	2.619449571758065e-01
	-9.344066662452527e-02
	-4.506654481618003e-02
	-5.240195731587809e-01
	-4.760511558446170e-01
	-8.850007986165397e-01
	-8.323309420269143e-01
	-1.287736883697794e+00
	-1.235667471844863e+00
	-1.707977370353480e+00
	-1.657549552738520e+00
	-1.265993720486380e+00
	-1.187567677911217e+00
	8.173598418661449e+00

 55	5.502997145549328e-02
	5.502997145549328e-02
	1.284225965646998e-01
	6.173128090447972e-01
	6.651979890237593e-01
	2.216964807714078e-01
	2.629437729101926e-01
	-9.244315050862678e-02
	-4.406903313963297e-02
	-5.230223165640041e-01
	-4.750539036519597e-01
	-8.840041032259059e-01
	-8.313342514698566e-01
	-1.286740423228026e+00
	-1.234671016153568e+00
	-1.706981265026779e+00
	-1.656553452039641e+00
	-1.265927114097281e+00
	-1.187501078719372e+00
	8.173597668560451e+00

 56	5.602997145549328e-02
	5.602997145549328e-02
	1.294225898293684e-01
	6.183121758413835e-01
	6.661973514258634e-01
	2.226953002994631e-01
	2.639425886529330e-01
	-9.144563435399811e-02
	-4.307152142435677e-02
	-5.220250599285247e-01
	-4.740566514186006e-01
	-8.830074077873642e-01
	-8.303375608648920e-01
	-1.285743962709077e+00
	-1.233674560413093e+00
	-1.705985159647149e+00
	-1.655557351287833e+00
	-1.265860507706189e+00
	-1.187434479525533e+00
	8.173596918459348e+00

 57	5.702997145549328e-02
	5.702997145549328e-02
	1.304225830940380e-01
	6.193115426380600e-01
	6.671967138280588e-01
	2.236941198362859e-01
	2.649414044044418e-01
	-9.044811815963355e-02
	-4.207400966934364e-02
	-5.210278032512191e-01
	-4.730593991434146e-01
	-8.820107122995544e-01
	-8.293408702106586e-01
	-1.284747502139517e+00
	-1.232678104622006e+00
	-1.704989054213119e+00
	-1.654561250481626e+00
	-1.265793901310199e+00
	-1.187367880326797e+00
	8.173596168358346e+00

 58	5.802997145549328e-02
	5.802997145549328e-02
	1.314225763587057e-01
	6.203109094345598e-01
	6.681960762300763e-01
	2.246929393813321e-01
	2.659402201641729e-01
	-8.945060192674037e-02
	-4.107649787580311e-02
	-5.200305465334256e-01
	-4.720621468277417e-01
	-8.810140167640648e-01
	-8.283441795087463e-01
	-1.283751041521007e+00
	-1.231681648781970e+00
	-1.703992948726440e+00
	-1.653565149622770e+00
	-1.265727294909607e+00
	-1.187301281123459e+00
	8.173595418257143e+00

 59	5.902997145549328e-02
	5.902997145549328e-02
	1.324225696233728e-01
	6.213102762310078e-01
	6.691954386320413e-01
	2.256917589348085e-01
	2.669390359323336e-01
	-8.845308565495874e-02
	-4.007898604337483e-02
	-5.190332897747548e-01
	-4.710648944711923e-01
	-8.800173211804616e-01
	-8.273474887587214e-01
	-1.282754580853120e+00
	-1.230685192892557e+00
	-1.702996843186654e+00
	-1.652569048710806e+00
	-1.265660688505757e+00
	-1.187234681916863e+00
	8.173594668155879e+00

 60	6.002997145549328e-02
	6.002997145549328e-02
	1.334225628880415e-01
	6.223096430276036e-01
	6.701948010341555e-01
	2.266905784971307e-01
	2.679378517093411e-01
	-8.745556934333254e-02
	-3.908147417110083e-02
	-5.180360329741419e-01
	-4.700676420726995e-01
	-8.790206255474649e-01
	-8.263507979593019e-01
	-1.281758120134484e+00
	-1.229688736952395e+00
	-1.702000737592311e+00
	-1.651572947744286e+00
	-1.265594082098435e+00
	-1.187168082706796e+00
	8.173593918054785e+00

 61	6.102997145549328e-02
	6.102997145549328e-02
	1.344225561527081e-01
	6.233090098240019e-01
	6.711941634360707e-01
	2.276893980676494e-01
	2.689366674945440e-01
	-8.645805299320952e-02
	-3.808396226033125e-02
	-5.170387761330733e-01
	-4.690703896337524e-01
	-8.780239298668355e-01
	-8.253541071122508e-01
	-1.280761659366953e+00
	-1.228692280963338e+00
	-1.701004631945365e+00
	-1.650576846725164e+00
	-1.265527475690932e+00
	-1.187101483496548e+00
	8.173593167953459e+00
